63
	Energy:      83.2236958
Zn        20.44950        7.56565       20.44950
Zn        20.44950        5.31820       18.20205
Zn        18.20205        5.31820       20.44950
Zn        18.20205        7.56565       18.20205
Zn         7.56565        7.56565       18.20205
O         19.32578        6.44193       19.32578
O         20.10396        7.22011       22.31715
O         22.31715        5.66374       18.54759
O         18.54759        3.45055       20.10396
O         20.10396        5.66374       16.33440
O         22.31715        7.22011       20.10396
O         18.54759        9.43330       18.54759
O         18.54759        7.22011       16.33440
O         16.33440        5.66374       20.10396
O         20.10396        3.45055       18.54759
O          9.43330        7.22011       18.54759
O         18.54759        5.66374       22.31715
O         16.33440        7.22011       18.54759
O         20.10396        9.43330       20.10396
O          9.43330        5.66374       20.10396
C         19.32578        6.44193       22.89460
C         22.89460        6.44193       19.32578
C         19.32578        2.87310       19.32578
C         19.32578        6.44193       15.75695
C         19.32578       10.01075       19.32578
C         15.75695        6.44193       19.32578
C         10.01075        6.44193       19.32578
C         19.32578        6.44193       14.25985
C         19.32578       11.50785       19.32578
C         19.32578        6.44193       11.50785
C         19.32578       14.25985       19.32578
C         14.25985        6.44193       19.32578
C         11.50785        6.44193       19.32578
C         20.13230        5.63540       13.56669
C         18.51925       12.20101       18.51925
C         18.51925        7.24845       12.20101
C         20.13230       13.56669       20.13230
C         18.51925        7.24845       13.56669
C         13.56669        5.63540       20.13230
C         20.13230        5.63540       12.20101
C         12.20101        7.24845       18.51925
C         13.56669        7.24845       18.51925
C         20.13230       12.20101       20.13230
C         18.51925       13.56669       18.51925
C         12.20101        5.63540       20.13230
H         20.70692        5.06078       14.02278
H         17.94463       11.74492       17.94463
H         17.94463        7.82307       11.74492
H         20.70692       14.02278       20.70692
H         17.94463        7.82307       14.02278
H         14.02278        5.06078       20.70692
H         20.70692        5.06078       11.74492
H         11.74492        7.82307       17.94463
H         14.02278        7.82307       17.94463
H         20.70692       11.74492       20.70692
H         17.94463       14.02278       17.94463
H         11.74492        5.06078       20.70692
H         19.94354        2.25533       19.94354
H         18.70801        7.05969       23.51237
H         23.51237        7.05969       18.70801
H         19.32578       15.29185       19.32578
H         19.32578        6.44193       10.47585
H          7.07675        6.28737       18.27160
